 # HEADER
  
         144  atoms
           4  atom types
 
      0.000000000000       8.900000000000  xlo xhi
      0.000000000000      12.580000000000  ylo yhi
      0.000000000000      12.820000000000  zlo zhi
 
Masses
 
            1   14.00700000             # N
            2   15.99900000             # O
            3   12.01100000             # C
            4   1.00800000              # H
 
Atoms # charge
 
         1    1   0.000000        3.932000000000       1.965000000000       8.053000000000
         2    1   0.000000        4.900000000000       2.404000000000       7.727000000000
         3    1   0.000000        2.999000000000       3.134000000000       6.456000000000
         4    1   0.000000        2.123000000000       2.874000000000       5.823000000000
         5    1   0.000000       -0.009000000000       5.570000000000       5.265000000000
         6    1   0.000000        0.002000000000       4.458000000000       5.274000000000
         7    1   0.000000        5.402000000000       0.001000000000      10.356000000000
         8    1   0.000000        5.362000000000       1.108000000000      10.449000000000
         9    1   0.000000        0.008000000000       9.689000000000       4.564000000000
        10    1   0.000000        0.037000000000      10.569000000000       3.885000000000
        11    1   0.000000        2.878000000000       0.002000000000       5.828000000000
        12    1   0.000000        3.335000000000       0.257000000000       6.810000000000
        13    1   0.000000        6.873000000000       5.627000000000       6.816000000000
        14    1   0.000000        6.867000000000       5.168000000000       5.804000000000
        15    1   0.000000        4.055000000000       9.724000000000       0.833000000000
        16    1   0.000000        4.571000000000       9.239000000000      -0.024000000000
        17    1   0.000000        0.065000000000       3.144000000000       0.215000000000
        18    1   0.000000        0.206000000000       3.939000000000       0.980000000000
        19    1   0.000000        4.329000000000       6.418000000000       7.912000000000
        20    1   0.000000        4.277000000000       7.060000000000       8.817000000000
        21    1   0.000000        0.007000000000       5.823000000000       7.444000000000
        22    1   0.000000        0.097000000000       6.899000000000       7.178000000000
        23    1   0.000000        4.087000000000       9.550000000000      10.432000000000
        24    1   0.000000        4.283000000000      10.578000000000      10.810000000000
        25    1   0.000000        4.739000000000       6.974000000000       1.221000000000
        26    1   0.000000        5.014000000000       7.959000000000       1.658000000000
        27    1   0.000000        6.867000000000      10.303000000000       6.837000000000
        28    1   0.000000        5.851000000000      10.559000000000       6.465000000000
        29    1   0.000000        0.045000000000       2.065000000000      10.808000000000
        30    1   0.000000        0.005000000000       1.047000000000      10.363000000000
        31    1   0.000000        1.157000000000      -0.006000000000       2.702000000000
        32    1   0.000000        2.261000000000      -0.002000000000       2.832000000000
        33    1   0.000000        5.789000000000       2.397000000000       2.036000000000
        34    1   0.000000        6.813000000000       2.611000000000       2.414000000000
        35    1   0.000000        1.513000000000       8.546000000000       8.617000000000
        36    1   0.000000        2.565000000000       8.887000000000       8.738000000000
        37    1   0.000000        2.026000000000       0.348000000000      -0.008000000000
        38    1   0.000000        2.968000000000      -0.057000000000       0.421000000000
        39    1   0.000000        0.779000000000       9.819000000000       6.607000000000
        40    1   0.000000       -0.015000000000       9.059000000000       6.773000000000
        41    1   0.000000        6.873000000000       0.622000000000       3.813000000000
        42    1   0.000000        6.123000000000       0.005000000000       4.354000000000
        43    1   0.000000        6.584000000000       7.321000000000       5.450000000000
        44    1   0.000000        6.831000000000       8.378000000000       5.689000000000
        45    1   0.000000        6.042000000000       5.206000000000       3.769000000000
        46    1   0.000000        6.849000000000       4.444000000000       3.694000000000
        47    1   0.000000        5.848000000000       3.130000000000      -0.017000000000
        48    1   0.000000        6.919000000000       3.070000000000       0.277000000000
        49    2   0.000000        6.189000000000      10.582000000000       2.074000000000
        50    2   0.000000        6.866000000000       8.820000000000       3.546000000000
        51    3   0.000000        6.527000000000       9.701000000000       2.810000000000
        52    2   0.000000        6.074000000000       4.533000000000       1.652000000000
        53    2   0.000000        6.870000000000       6.791000000000       1.647000000000
        54    3   0.000000        6.472000000000       5.662000000000       1.649000000000
        55    2   0.000000        3.961000000000       6.101000000000       5.784000000000
        56    2   0.000000        1.879000000000       5.010000000000       6.241000000000
        57    3   0.000000        2.920000000000       5.556000000000       6.012000000000
        58    2   0.000000        0.878000000000       6.826000000000       2.113000000000
        59    2   0.000000        0.009000000000       6.066000000000       0.016000000000
        60    3   0.000000        0.444000000000       6.446000000000       1.064000000000
        61    2   0.000000        3.296000000000      10.577000000000       4.892000000000
        62    2   0.000000        2.766000000000      10.473000000000       7.224000000000
        63    3   0.000000        3.031000000000      10.525000000000       6.058000000000
        64    2   0.000000        2.161000000000       3.751000000000       0.005000000000
        65    2   0.000000        2.428000000000       6.119000000000       0.233000000000
        66    3   0.000000        2.295000000000       4.935000000000       0.119000000000
        67    2   0.000000        1.063000000000       3.243000000000       8.697000000000
        68    2   0.000000        1.739000000000       0.971000000000       9.030000000000
        69    3   0.000000        1.401000000000       2.107000000000       8.863000000000
        70    2   0.000000        0.103000000000       6.454000000000       9.540000000000
        71    2   0.000000        0.045000000000       4.230000000000      10.425000000000
        72    3   0.000000        0.074000000000       5.342000000000       9.983000000000
        73    2   0.000000        2.790000000000       1.901000000000       1.379000000000
        74    2   0.000000        0.498000000000       2.021000000000       2.060000000000
        75    3   0.000000        1.644000000000       1.961000000000       1.720000000000
        76    2   0.000000        1.666000000000       2.892000000000       3.690000000000
        77    2   0.000000        0.022000000000       4.524000000000       3.084000000000
        78    3   0.000000        0.844000000000       3.708000000000       3.387000000000
        79    2   0.000000        4.539000000000       1.372000000000       0.005000000000
        80    2   0.000000        6.771000000000       0.532000000000       0.209000000000
        81    3   0.000000        5.655000000000       0.952000000000       0.107000000000
        82    2   0.000000        4.125000000000      10.560000000000       2.862000000000
        83    2   0.000000        2.193000000000       9.147000000000       2.795000000000
        84    3   0.000000        3.159000000000       9.853000000000       2.828000000000
        85    2   0.000000        3.478000000000       8.142000000000       6.387000000000
        86    4   0.000000        3.119000000000       7.841000000000       6.794000000000
        87    4   0.000000        3.882000000000       8.568000000000       6.587000000000
        88    2   0.000000        4.873000000000       0.078000000000       2.531000000000
        89    4   0.000000        4.366000000000       0.351000000000       2.301000000000
        90    4   0.000000        5.418000000000       0.144000000000       2.243000000000
        91    2   0.000000        3.223000000000       6.874000000000       3.298000000000
        92    4   0.000000        3.831000000000       6.967000000000       3.217000000000
        93    4   0.000000        2.905000000000       6.529000000000       2.893000000000
        94    2   0.000000        3.719000000000       4.008000000000       1.497000000000
        95    4   0.000000        3.916000000000       4.511000000000       1.801000000000
        96    4   0.000000        4.130000000000       3.609000000000       1.259000000000
        97    2   0.000000        0.595000000000      10.319000000000       1.245000000000
        98    4   0.000000        0.015000000000      10.278000000000       1.030000000000
        99    4   0.000000        0.703000000000      10.578000000000       1.798000000000
       100    2   0.000000        4.760000000000       8.977000000000       4.507000000000
       101    4   0.000000        5.146000000000       9.401000000000       4.744000000000
       102    4   0.000000        4.938000000000       8.384000000000       4.467000000000
       103    2   0.000000        2.844000000000       5.275000000000      10.492000000000
       104    4   0.000000        2.310000000000       5.152000000000      10.782000000000
       105    4   0.000000        3.329000000000       5.490000000000      10.813000000000
       106    2   0.000000        1.899000000000       7.940000000000      10.802000000000
       107    4   0.000000        1.668000000000       7.364000000000      10.788000000000
       108    4   0.000000        1.516000000000       8.427000000000      10.808000000000
       109    2   0.000000        4.264000000000       3.641000000000       9.794000000000
       110    4   0.000000        3.695000000000       3.431000000000       9.664000000000
       111    4   0.000000        4.753000000000       3.262000000000       9.745000000000
       112    2   0.000000        3.430000000000       4.467000000000       3.975000000000
       113    4   0.000000        3.881000000000       4.892000000000       3.963000000000
       114    4   0.000000        2.836000000000       4.645000000000       3.997000000000
       115    2   0.000000        6.863000000000       7.629000000000       8.249000000000
       116    4   0.000000        6.362000000000       7.274000000000       8.166000000000
       117    4   0.000000        6.872000000000       8.210000000000       8.031000000000
       118    2   0.000000        6.312000000000       1.168000000000       6.592000000000
       119    4   0.000000        6.246000000000       0.564000000000       6.465000000000
       120    4   0.000000        6.875000000000       1.399000000000       6.712000000000
       121    2   0.000000        0.344000000000       7.601000000000       4.094000000000
       122    3   0.000000        1.381000000000       7.551000000000       4.289000000000
       123    2   0.000000        2.615000000000       8.270000000000       0.048000000000
       124    3   0.000000        1.698000000000       8.605000000000       0.451000000000
       125    2   0.000000        6.851000000000       9.246000000000       0.333000000000
       126    3   0.000000        6.579000000000       8.268000000000       0.041000000000
       127    2   0.000000        0.025000000000       0.878000000000       4.367000000000
       128    3   0.000000        0.150000000000       1.829000000000       4.807000000000
       129    2   0.000000        0.710000000000       1.453000000000       6.883000000000
       130    3   0.000000        0.907000000000       0.431000000000       6.705000000000
       131    2   0.000000        2.439000000000       5.392000000000       8.333000000000
       132    3   0.000000        2.093000000000       6.367000000000       8.120000000000
       133    2   0.000000        5.586000000000       5.329000000000       9.334000000000
       134    3   0.000000        5.921000000000       4.695000000000       8.559000000000
       135    2   0.000000        6.777000000000       1.720000000000       8.887000000000
       136    3   0.000000        6.856000000000       2.765000000000       9.020000000000
       137    2   0.000000        3.071000000000       0.891000000000      10.809000000000
       138    3   0.000000        2.670000000000       1.867000000000      10.807000000000
       139    2   0.000000        5.211000000000       3.756000000000       5.571000000000
       140    3   0.000000        6.061000000000       3.134000000000       5.650000000000
       141    2   0.000000        4.890000000000       1.816000000000       4.336000000000
       142    3   0.000000        4.017000000000       1.223000000000       4.290000000000
       143    2   0.000000        4.674000000000      10.424000000000       8.312000000000
       144    3   0.000000        5.274000000000       9.598000000000       8.581000000000
